TITLE = CNT_Wires
VARIABLES = X, Y, Z
ZONE N=8, E=1, F=FEPOINT, ET=BRICK
-0.8  -0.8  0
-0.8  -0.8  2.6
-0.8  1.8  0
-0.8  1.8  2.6
1.8  -0.8  0
1.8  -0.8  2.6
1.8  1.8  0
1.8  1.8  2.6
1 2 4 3 5 6 8 7


ZONE N=8, E=1, F=FEPOINT, ET=BRICK
-0.8  -0.8  0
-0.8  -0.8  0.01
-0.8  1.8  0
-0.8  1.8  0.01
1.8  -0.8  0
1.8  -0.8  0.01
1.8  1.8  0
1.8  1.8  0.01
1 2 4 3 5 6 8 7


ZONE T="Line"
i=1,j=2, f=point
-0.78718  1.59508  0.005
-0.167946  1.08858  0.005


ZONE T="Line"
i=1,j=2, f=point
1.00251  -0.658501  0.005
1.17055  -0.8  0.005


ZONE T="Line"
i=1,j=2, f=point
1.61507  -0.740677  0.005
1.71962  -0.8  0.005


ZONE T="Line"
i=1,j=2, f=point
-0.121518  -0.361018  0.005
0.354419  0.282009  0.005


ZONE T="Line"
i=1,j=2, f=point
0.338353  -0.723314  0.005
0.404821  -0.8  0.005


ZONE T="Line"
i=1,j=2, f=point
-0.236042  0.824615  0.005
0.0178911  0.0659862  0.005


ZONE T="Line"
i=1,j=2, f=point
-0.223644  1.77928  0.005
-0.202706  1.8  0.005


ZONE T="Line"
i=1,j=2, f=point
0.297622  1.4989  0.005
0.850168  0.920372  0.005


ZONE T="Line"
i=1,j=2, f=point
-0.593867  -0.0620879  0.005
-0.0952763  0.563538  0.005


ZONE T="Line"
i=1,j=2, f=point
1.75089  -0.0675868  0.005
1.8  -0.08188  0.005


ZONE T="Line"
i=1,j=2, f=point
0.0118109  1.31964  0.005
0.528485  0.708864  0.005


ZONE T="Line"
i=1,j=2, f=point
0.870191  0.513687  0.005
1.54144  0.948911  0.005


ZONE T="Line"
i=1,j=2, f=point
0.324996  0.795122  0.005
0.902267  1.34898  0.005


ZONE T="Line"
i=1,j=2, f=point
0.566806  1.45351  0.005
1.3113  1.7463  0.005


ZONE T="Line"
i=1,j=2, f=point
0.925515  0.694359  0.005
1.43124  1.31424  0.005


ZONE T="Line"
i=1,j=2, f=point
1.38785  -0.746284  0.005
1.42663  -0.8  0.005


ZONE T="Line"
i=1,j=2, f=point
-0.149613  -0.684067  0.005
0.498613  -0.215236  0.005


ZONE T="Line"
i=1,j=2, f=point
0.648134  0.492014  0.005
1.31209  0.938286  0.005


ZONE T="Line"
i=1,j=2, f=point
0.28182  1.72212  0.005
0.286712  1.8  0.005


ZONE T="Line"
i=1,j=2, f=point
-0.353563  1.30148  0.005
0.312291  1.74492  0.005


ZONE T="Line"
i=1,j=2, f=point
-0.106248  1.54397  0.005
0.564374  1.10777  0.005


ZONE T="Line"
i=1,j=2, f=point
-0.463842  1.36159  0.005
0.313862  1.17404  0.005


ZONE T="Line"
i=1,j=2, f=point
0.0673509  1.00799  0.005
0.75395  1.41857  0.005


ZONE T="Line"
i=1,j=2, f=point
1.36258  -0.466891  0.005
1.76375  -0.8  0.005


ZONE T="Line"
i=1,j=2, f=point
0.679691  -0.706552  0.005
0.737426  -0.8  0.005


ZONE T="Line"
i=1,j=2, f=point
-0.385477  -0.771136  0.005
-0.366868  -0.8  0.005


ZONE T="Line"
i=1,j=2, f=point
0.983768  1.36386  0.005
0.990041  1.8  0.005


ZONE T="Line"
i=1,j=2, f=point
-0.213135  1.41268  0.005
-0.182476  1.8  0.005


ZONE T="Line"
i=1,j=2, f=point
0.0426459  1.47719  0.005
0.81345  1.26303  0.005


ZONE T="Line"
i=1,j=2, f=point
1.36814  0.146859  0.005
1.48942  0.937613  0.005


ZONE T="Line"
i=1,j=2, f=point
1.69926  -0.454388  0.005
1.78706  0.340779  0.005


ZONE T="Line"
i=1,j=2, f=point
0.551784  1.76482  0.005
0.865127  1.8  0.005


ZONE T="Line"
i=1,j=2, f=point
-0.177152  1.72688  0.005
0.123008  0.985322  0.005


ZONE T="Line"
i=1,j=2, f=point
0.0506009  0.178803  0.005
0.157619  0.971613  0.005


ZONE T="Line"
i=1,j=2, f=point
1.54955  0.669536  0.005
1.8  0.7324  0.005


ZONE T="Line"
i=1,j=2, f=point
-0.601222  0.837335  0.005
-0.214471  1.53764  0.005


ZONE T="Line"
i=1,j=2, f=point
-0.450936  -0.150014  0.005
0.0883666  0.440878  0.005


ZONE T="Line"
i=1,j=2, f=point
0.73497  -0.394228  0.005
0.976465  0.368451  0.005


ZONE T="Line"
i=1,j=2, f=point
1.43907  0.972239  0.005
1.8  1.01341  0.005


ZONE T="Line"
i=1,j=2, f=point
1.66322  0.177493  0.005
1.8  0.141743  0.005


ZONE T="Line"
i=1,j=2, f=point
0.660463  1.16316  0.005
0.913764  0.404316  0.005


ZONE T="Line"
i=1,j=2, f=point
-0.536581  0.595906  0.005
0.241401  0.409508  0.005


ZONE T="Line"
i=1,j=2, f=point
1.39837  -0.175414  0.005
1.62099  -0.8  0.005


ZONE T="Line"
i=1,j=2, f=point
1.46604  0.41157  0.005
1.8  0.3587  0.005


ZONE T="Line"
i=1,j=2, f=point
0.242048  -0.29429  0.005
0.805652  -0.8  0.005


ZONE T="Line"
i=1,j=2, f=point
1.11325  -0.440677  0.005
1.55898  0.223646  0.005


ZONE T="Line"
i=1,j=2, f=point
-0.701793  0.92468  0.005
-0.0314105  0.488117  0.005


ZONE T="Line"
i=1,j=2, f=point
-0.0223111  -0.352963  0.005
0.192686  -0.8  0.005


ZONE T="Line"
i=1,j=2, f=point
0.43614  0.15863  0.005
1.04233  0.680678  0.005


ZONE T="Line"
i=1,j=2, f=point
1.33621  1.78867  0.005
1.72743  1.09085  0.005


ZONE T="Line"
i=1,j=2, f=point
1.41622  0.294842  0.005
1.8  0.126573  0.005


ZONE T="Line"
i=1,j=2, f=point
-0.609897  0.0186992  0.005
0.177747  -0.121362  0.005


ZONE T="Line"
i=1,j=2, f=point
1.64955  -0.338831  0.005
1.8  -0.363932  0.005


ZONE T="Line"
i=1,j=2, f=point
-0.380646  0.925766  0.005
0.283384  1.37193  0.005


ZONE T="Line"
i=1,j=2, f=point
1.75003  0.280725  0.005
1.8  0.314729  0.005


ZONE T="Line"
i=1,j=2, f=point
0.685306  1.61586  0.005
0.967196  1.8  0.005


ZONE T="Line"
i=1,j=2, f=point
1.33798  1.28819  0.005
1.66117  1.8  0.005


ZONE T="Line"
i=1,j=2, f=point
1.34842  1.08153  0.005
1.8  1.14327  0.005


ZONE T="Line"
i=1,j=2, f=point
1.01468  1.65885  0.005
1.02974  1.8  0.005


ZONE T="Line"
i=1,j=2, f=point
1.26177  1.39425  0.005
1.77143  0.777607  0.005


ZONE T="Line"
i=1,j=2, f=point
-0.1655  -0.169185  0.005
-0.0370047  -0.8  0.005


ZONE T="Line"
i=1,j=2, f=point
0.753773  1.59151  0.005
0.799473  1.8  0.005


ZONE T="Line"
i=1,j=2, f=point
0.645919  0.449282  0.005
0.86864  -0.31909  0.005


