TITLE = CNT_Meshes_Singlezone_Cutoff_Wins
VARIABLES = X, Y, Z
ZONE N=8, E=1, F=FEPOINT, ET=BRICK
0  0  0
0  0  1
0  1  0
0  1  1
1  0  0
1  0  1
1  1  0
1  1  1
1 2 4 3 5 6 8 7


ZONE N=8, E=1, F=FEPOINT, ET=BRICK
0  0  0
0  0  0.01
0  1  0
0  1  0.01
1  0  0
1  0  0.01
1  1  0
1  1  0.01
1 2 4 3 5 6 8 7


ZONE N=3552, E=5184, F=FEPOINT, ET=TETRAHEDRON
0.857424  0.673988  0.005
0.857424  0.673988  0
0.85669  0.673525  7.59612e-005
0.855978  0.673076  0.000301537
0.855309  0.672655  0.000669873
0.854706  0.672274  0.00116978
0.854184  0.671945  0.00178606
0.853761  0.671679  0.0025
0.85345  0.671482  0.0032899
0.853259  0.671362  0.00413176
0.853195  0.671321  0.005
0.853259  0.671362  0.00586824
0.85345  0.671482  0.0067101
0.853761  0.671679  0.0075
0.854184  0.671945  0.00821394
0.854706  0.672274  0.00883022
0.855309  0.672655  0.00933013
0.855978  0.673076  0.00969846
0.85669  0.673525  0.00992404
0.857424  0.673988  0.01
0.858159  0.674451  0.00992404
0.858871  0.6749  0.00969846
0.859539  0.675321  0.00933013
0.860143  0.675702  0.00883022
0.860664  0.676031  0.00821394
0.861087  0.676297  0.0075
0.861399  0.676494  0.0067101
0.86159  0.676614  0.00586824
0.861654  0.676655  0.005
0.86159  0.676614  0.00413176
0.861399  0.676494  0.0032899
0.861087  0.676297  0.0025
0.860664  0.676031  0.00178606
0.860143  0.675702  0.00116978
0.859539  0.675321  0.000669873
0.858871  0.6749  0.000301537
0.858159  0.674451  7.59612e-005
1  0.447839  0.005
1  0.447839  0
0.999266  0.447376  7.59612e-005
0.998553  0.446927  0.000301537
0.997885  0.446506  0.000669873
0.997281  0.446125  0.00116978
0.99676  0.445797  0.00178606
0.996337  0.44553  0.0025
0.996025  0.445334  0.0032899
0.995835  0.445213  0.00413176
0.99577  0.445173  0.005
0.995835  0.445213  0.00586824
0.996025  0.445334  0.0067101
0.996337  0.44553  0.0075
0.99676  0.445797  0.00821394
0.997281  0.446125  0.00883022
0.997885  0.446506  0.00933013
0.998553  0.446927  0.00969846
0.999266  0.447376  0.00992404
1  0.447839  0.01
1.00073  0.448302  0.00992404
1.00145  0.448751  0.00969846
1.00211  0.449173  0.00933013
1.00272  0.449553  0.00883022
1.00324  0.449882  0.00821394
1.00366  0.450149  0.0075
1.00397  0.450345  0.0067101
1.00417  0.450465  0.00586824
1.00423  0.450506  0.005
1.00417  0.450465  0.00413176
1.00397  0.450345  0.0032899
1.00366  0.450149  0.0025
1.00324  0.449882  0.00178606
1.00272  0.449553  0.00116978
1.00211  0.449173  0.000669873
1.00145  0.448751  0.000301537
1.00073  0.448302  7.59612e-005
0.30661  0.973533  0.005
0.30661  0.973533  0
0.306881  0.972708  7.59612e-005
0.307144  0.971908  0.000301537
0.307391  0.971158  0.000669873
0.307614  0.97048  0.00116978
0.307807  0.969894  0.00178606
0.307963  0.969419  0.0025
0.308078  0.96907  0.0032899
0.308148  0.968855  0.00413176
0.308172  0.968783  0.005
0.308148  0.968855  0.00586824
0.308078  0.96907  0.0067101
0.307963  0.969419  0.0075
0.307807  0.969894  0.00821394
0.307614  0.97048  0.00883022
0.307391  0.971158  0.00933013
0.307144  0.971908  0.00969846
0.306881  0.972708  0.00992404
0.30661  0.973533  0.01
0.306339  0.974358  0.00992404
0.306076  0.975157  0.00969846
0.305829  0.975908  0.00933013
0.305606  0.976586  0.00883022
0.305413  0.977171  0.00821394
0.305257  0.977646  0.0075
0.305142  0.977996  0.0067101
0.305071  0.97821  0.00586824
0.305048  0.978282  0.005
0.305071  0.97821  0.00413176
0.305142  0.977996  0.0032899
0.305257  0.977646  0.0025
0.305413  0.977171  0.00178606
0.305606  0.976586  0.00116978
0.305829  0.975908  0.000669873
0.306076  0.975157  0.000301537
0.306339  0.974358  7.59612e-005
0.387073  1  0.005
0.387073  1  0
0.387345  0.999175  7.59612e-005
0.387608  0.998376  0.000301537
0.387854  0.997625  0.000669873
0.388077  0.996947  0.00116978
0.38827  0.996362  0.00178606
0.388426  0.995887  0.0025
0.388541  0.995537  0.0032899
0.388612  0.995323  0.00413176
0.388636  0.99525  0.005
0.388612  0.995323  0.00586824
0.388541  0.995537  0.0067101
0.388426  0.995887  0.0075
0.38827  0.996362  0.00821394
0.388077  0.996947  0.00883022
0.387854  0.997625  0.00933013
0.387608  0.998376  0.00969846
0.387345  0.999175  0.00992404
0.387073  1  0.01
0.386802  1.00082  0.00992404
0.386539  1.00162  0.00969846
0.386292  1.00237  0.00933013
0.386069  1.00305  0.00883022
0.385876  1.00364  0.00821394
0.38572  1.00411  0.0075
0.385605  1.00446  0.0067101
0.385535  1.00468  0.00586824
0.385511  1.00475  0.005
0.385535  1.00468  0.00413176
0.385605  1.00446  0.0032899
0.38572  1.00411  0.0025
0.385876  1.00364  0.00178606
0.386069  1.00305  0.00116978
0.386292  1.00237  0.000669873
0.386539  1.00162  0.000301537
0.386802  1.00082  7.59612e-005
0.7691  0.19434  0.005
0.7691  0.19434  0
0.768738  0.19355  7.59612e-005
0.768388  0.192785  0.000301537
0.76806  0.192066  0.000669873
0.767763  0.191417  0.00116978
0.767506  0.190857  0.00178606
0.767298  0.190402  0.0025
0.767145  0.190067  0.0032899
0.767051  0.189862  0.00413176
0.76702  0.189793  0.005
0.767051  0.189862  0.00586824
0.767145  0.190067  0.0067101
0.767298  0.190402  0.0075
0.767506  0.190857  0.00821394
0.767763  0.191417  0.00883022
0.76806  0.192066  0.00933013
0.768388  0.192785  0.00969846
0.768738  0.19355  0.00992404
0.7691  0.19434  0.01
0.769461  0.195129  0.00992404
0.769811  0.195895  0.00969846
0.770139  0.196613  0.00933013
0.770436  0.197263  0.00883022
0.770693  0.197823  0.00821394
0.770901  0.198278  0.0075
0.771054  0.198613  0.0067101
0.771148  0.198818  0.00586824
0.771179  0.198887  0.005
0.771148  0.198818  0.00413176
0.771054  0.198613  0.0032899
0.770901  0.198278  0.0025
0.770693  0.197823  0.00178606
0.770436  0.197263  0.00116978
0.770139  0.196613  0.000669873
0.769811  0.195895  0.000301537
0.769461  0.195129  7.59612e-005
1  0.088724  0.005
1  0.088724  0
0.999639  0.0879345  7.59612e-005
0.999289  0.0871689  0.000301537
0.99896  0.0864506  0.000669873
0.998663  0.0858013  0.00116978
0.998407  0.0852409  0.00178606
0.998199  0.0847863  0.0025
0.998046  0.0844513  0.0032899
0.997952  0.0842462  0.00413176
0.99792  0.0841771  0.005
0.997952  0.0842462  0.00586824
0.998046  0.0844513  0.0067101
0.998199  0.0847863  0.0075
0.998407  0.0852409  0.00821394
0.998663  0.0858013  0.00883022
0.99896  0.0864506  0.00933013
0.999289  0.0871689  0.00969846
0.999639  0.0879345  0.00992404
1  0.088724  0.01
1.00036  0.0895136  0.00992404
1.00071  0.0902792  0.00969846
1.00104  0.0909975  0.00933013
1.00134  0.0916467  0.00883022
1.00159  0.0922072  0.00821394
1.0018  0.0926618  0.0075
1.00195  0.0929967  0.0067101
1.00205  0.0932019  0.00586824
1.00208  0.0932709  0.005
1.00205  0.0932019  0.00413176
1.00195  0.0929967  0.0032899
1.0018  0.0926618  0.0025
1.00159  0.0922072  0.00178606
1.00134  0.0916467  0.00116978
1.00104  0.0909975  0.000669873
1.00071  0.0902792  0.000301537
1.00036  0.0895136  7.59612e-005
0.540107  0.420425  0.005
0.540107  0.420425  0
0.540298  0.419578  7.59612e-005
0.540483  0.418757  0.000301537
0.540657  0.417986  0.000669873
0.540814  0.41729  0.00116978
0.54095  0.416689  0.00178606
0.54106  0.416201  0.0025
0.541141  0.415842  0.0032899
0.541191  0.415622  0.00413176
0.541208  0.415548  0.005
0.541191  0.415622  0.00586824
0.541141  0.415842  0.0067101
0.54106  0.416201  0.0075
0.54095  0.416689  0.00821394
0.540814  0.41729  0.00883022
0.540657  0.417986  0.00933013
0.540483  0.418757  0.00969846
0.540298  0.419578  0.00992404
0.540107  0.420425  0.01
0.539916  0.421272  0.00992404
0.53973  0.422093  0.00969846
0.539556  0.422864  0.00933013
0.539399  0.42356  0.00883022
0.539264  0.424161  0.00821394
0.539153  0.424649  0.0075
0.539072  0.425008  0.0067101
0.539023  0.425228  0.00586824
0.539006  0.425302  0.005
0.539023  0.425228  0.00413176
0.539072  0.425008  0.0032899
0.539153  0.424649  0.0025
0.539264  0.424161  0.00178606
0.539399  0.42356  0.00116978
0.539556  0.422864  0.000669873
0.53973  0.422093  0.000301537
0.539916  0.421272  7.59612e-005
1  0.524226  0.005
1  0.524226  0
1.00019  0.523379  7.59612e-005
1.00038  0.522558  0.000301537
1.00055  0.521787  0.000669873
1.00071  0.521091  0.00116978
1.00084  0.52049  0.00178606
1.00095  0.520002  0.0025
1.00103  0.519643  0.0032899
1.00108  0.519423  0.00413176
1.0011  0.519349  0.005
1.00108  0.519423  0.00586824
1.00103  0.519643  0.0067101
1.00095  0.520002  0.0075
1.00084  0.52049  0.00821394
1.00071  0.521091  0.00883022
1.00055  0.521787  0.00933013
1.00038  0.522558  0.00969846
1.00019  0.523379  0.00992404
1  0.524226  0.01
0.999809  0.525073  0.00992404
0.999623  0.525894  0.00969846
0.99945  0.526665  0.00933013
0.999292  0.527361  0.00883022
0.999157  0.527962  0.00821394
0.999047  0.52845  0.0075
0.998966  0.528809  0.0067101
0.998916  0.529029  0.00586824
0.998899  0.529103  0.005
0.998916  0.529029  0.00413176
0.998966  0.528809  0.0032899
0.999047  0.52845  0.0025
0.999157  0.527962  0.00178606
0.999292  0.527361  0.00116978
0.99945  0.526665  0.000669873
0.999623  0.525894  0.000301537
0.999809  0.525073  7.59612e-005
0.482285  0  0.005
0.482285  -3.75791e-019  0
0.482818  -0.000685502  7.59612e-005
0.483334  -0.00135018  0.000301537
0.483819  -0.00197382  0.000669873
0.484257  -0.0025375  0.00116978
0.484635  -0.00302407  0.00178606
0.484942  -0.00341876  0.0025
0.485168  -0.00370958  0.0032899
0.485307  -0.00388767  0.00413176
0.485353  -0.00394765  0.005
0.485307  -0.00388767  0.00586824
0.485168  -0.00370958  0.0067101
0.484942  -0.00341876  0.0075
0.484635  -0.00302407  0.00821394
0.484257  -0.0025375  0.00883022
0.483819  -0.00197382  0.00933013
0.483334  -0.00135018  0.00969846
0.482818  -0.000685502  0.00992404
0.482285  -4.83447e-019  0.01
0.481752  0.000685502  0.00992404
0.481235  0.00135018  0.00969846
0.48075  0.00197382  0.00933013
0.480312  0.0025375  0.00883022
0.479934  0.00302407  0.00821394
0.479627  0.00341876  0.0075
0.479401  0.00370958  0.0067101
0.479263  0.00388767  0.00586824
0.479216  0.00394765  0.005
0.479263  0.00388767  0.00413176
0.479401  0.00370958  0.0032899
0.479627  0.00341876  0.0025
0.479934  0.00302407  0.00178606
0.480312  0.0025375  0.00116978
0.48075  0.00197382  0.000669873
0.481235  0.00135018  0.000301537
0.481752  0.000685502  7.59612e-005
0.634816  0.118565  0.005
0.634816  0.118565  0
0.635349  0.11788  7.59612e-005
0.635866  0.117215  0.000301537
0.636351  0.116591  0.000669873
0.636789  0.116028  0.00116978
0.637167  0.115541  0.00178606
0.637474  0.115146  0.0025
0.6377  0.114855  0.0032899
0.637838  0.114677  0.00413176
0.637885  0.114617  0.005
0.637838  0.114677  0.00586824
0.6377  0.114855  0.0067101
0.637474  0.115146  0.0075
0.637167  0.115541  0.00821394
0.636789  0.116028  0.00883022
0.636351  0.116591  0.00933013
0.635866  0.117215  0.00969846
0.635349  0.11788  0.00992404
0.634816  0.118565  0.01
0.634284  0.119251  0.00992404
0.633767  0.119915  0.00969846
0.633282  0.120539  0.00933013
0.632844  0.121103  0.00883022
0.632466  0.121589  0.00821394
0.632159  0.121984  0.0075
0.631933  0.122275  0.0067101
0.631794  0.122453  0.00586824
0.631748  0.122513  0.005
0.631794  0.122453  0.00413176
0.631933  0.122275  0.0032899
0.632159  0.121984  0.0025
0.632466  0.121589  0.00178606
0.632844  0.121103  0.00116978
0.633282  0.120539  0.000669873
0.633767  0.119915  0.000301537
0.634284  0.119251  7.59612e-005
0.247458  1  0.005
0.247458  1  0
0.246747  0.999502  7.59612e-005
0.246057  0.99902  0.000301537
0.245409  0.998567  0.000669873
0.244824  0.998158  0.00116978
0.244319  0.997805  0.00178606
0.243909  0.997519  0.0025
0.243608  0.997308  0.0032899
0.243423  0.997178  0.00413176
0.24336  0.997135  0.005
0.243423  0.997178  0.00586824
0.243608  0.997308  0.0067101
0.243909  0.997519  0.0075
0.244319  0.997805  0.00821394
0.244824  0.998158  0.00883022
0.245409  0.998567  0.00933013
0.246057  0.99902  0.00969846
0.246747  0.999502  0.00992404
0.247458  1  0.01
0.24817  1.0005  0.00992404
0.24886  1.00098  0.00969846
0.249507  1.00143  0.00933013
0.250092  1.00184  0.00883022
0.250597  1.00219  0.00821394
0.251007  1.00248  0.0075
0.251309  1.00269  0.0067101
0.251494  1.00282  0.00586824
0.251556  1.00287  0.005
0.251494  1.00282  0.00413176
0.251309  1.00269  0.0032899
0.251007  1.00248  0.0025
0.250597  1.00219  0.00178606
0.250092  1.00184  0.00116978
0.249507  1.00143  0.000669873
0.24886  1.00098  0.000301537
0.24817  1.0005  7.59612e-005
0.392798  0.792126  0.005
0.392798  0.792126  0
0.392086  0.791628  7.59612e-005
0.391396  0.791146  0.000301537
0.390749  0.790693  0.000669873
0.390164  0.790284  0.00116978
0.389659  0.789931  0.00178606
0.389249  0.789645  0.0025
0.388947  0.789434  0.0032899
0.388763  0.789304  0.00413176
0.3887  0.789261  0.005
0.388763  0.789304  0.00586824
0.388947  0.789434  0.0067101
0.389249  0.789645  0.0075
0.389659  0.789931  0.00821394
0.390164  0.790284  0.00883022
0.390749  0.790693  0.00933013
0.391396  0.791146  0.00969846
0.392086  0.791628  0.00992404
0.392798  0.792126  0.01
0.39351  0.792623  0.00992404
0.3942  0.793106  0.00969846
0.394847  0.793558  0.00933013
0.395432  0.793968  0.00883022
0.395937  0.794321  0.00821394
0.396347  0.794607  0.0075
0.396649  0.794818  0.0067101
0.396833  0.794947  0.00586824
0.396896  0.794991  0.005
0.396833  0.794947  0.00413176
0.396649  0.794818  0.0032899
0.396347  0.794607  0.0025
0.395937  0.794321  0.00178606
0.395432  0.793968  0.00116978
0.394847  0.793558  0.000669873
0.3942  0.793106  0.000301537
0.39351  0.792623  7.59612e-005
0.355254  1  0.005
0.355254  1  0
0.354441  0.999696  7.59612e-005
0.353652  0.999402  0.000301537
0.352912  0.999126  0.000669873
0.352243  0.998876  0.00116978
0.351666  0.998661  0.00178606
0.351198  0.998486  0.0025
0.350853  0.998357  0.0032899
0.350641  0.998278  0.00413176
0.35057  0.998252  0.005
0.350641  0.998278  0.00586824
0.350853  0.998357  0.0067101
0.351198  0.998486  0.0075
0.351666  0.998661  0.00821394
0.352243  0.998876  0.00883022
0.352912  0.999126  0.00933013
0.353652  0.999402  0.00969846
0.354441  0.999696  0.00992404
0.355254  1  0.01
0.356068  1.0003  0.00992404
0.356857  1.0006  0.00969846
0.357597  1.00087  0.00933013
0.358265  1.00112  0.00883022
0.358843  1.00134  0.00821394
0.359311  1.00151  0.0075
0.359656  1.00164  0.0067101
0.359868  1.00172  0.00586824
0.359939  1.00175  0.005
0.359868  1.00172  0.00413176
0.359656  1.00164  0.0032899
0.359311  1.00151  0.0025
0.358843  1.00134  0.00178606
0.358265  1.00112  0.00116978
0.357597  1.00087  0.000669873
0.356857  1.0006  0.000301537
0.356068  1.0003  7.59612e-005
0.411047  0.850512  0.005
0.411047  0.850512  0
0.410233  0.850209  7.59612e-005
0.409444  0.849914  0.000301537
0.408704  0.849638  0.000669873
0.408035  0.849388  0.00116978
0.407458  0.849173  0.00178606
0.40699  0.848998  0.0025
0.406645  0.848869  0.0032899
0.406433  0.84879  0.00413176
0.406362  0.848764  0.005
0.406433  0.84879  0.00586824
0.406645  0.848869  0.0067101
0.40699  0.848998  0.0075
0.407458  0.849173  0.00821394
0.408035  0.849388  0.00883022
0.408704  0.849638  0.00933013
0.409444  0.849914  0.00969846
0.410233  0.850209  0.00992404
0.411047  0.850512  0.01
0.41186  0.850816  0.00992404
0.412649  0.85111  0.00969846
0.413389  0.851386  0.00933013
0.414058  0.851636  0.00883022
0.414635  0.851852  0.00821394
0.415103  0.852026  0.0075
0.415448  0.852155  0.0067101
0.41566  0.852234  0.00586824
0.415731  0.852261  0.005
0.41566  0.852234  0.00413176
0.415448  0.852155  0.0032899
0.415103  0.852026  0.0025
0.414635  0.851852  0.00178606
0.414058  0.851636  0.00116978
0.413389  0.851386  0.000669873
0.412649  0.85111  0.000301537
0.41186  0.850816  7.59612e-005
0.252975  0.599931  0.005
0.252975  0.599931  0
0.252726  0.599099  7.59612e-005
0.252484  0.598293  0.000301537
0.252257  0.597536  0.000669873
0.252052  0.596852  0.00116978
0.251875  0.596262  0.00178606
0.251731  0.595783  0.0025
0.251625  0.59543  0.0032899
0.251561  0.595214  0.00413176
0.251539  0.595142  0.005
0.251561  0.595214  0.00586824
0.251625  0.59543  0.0067101
0.251731  0.595783  0.0075
0.251875  0.596262  0.00821394
0.252052  0.596852  0.00883022
0.252257  0.597536  0.00933013
0.252484  0.598293  0.00969846
0.252726  0.599099  0.00992404
0.252975  0.599931  0.01
0.253225  0.600762  0.00992404
0.253467  0.601569  0.00969846
0.253694  0.602325  0.00933013
0.253899  0.603009  0.00883022
0.254076  0.6036  0.00821394
0.254219  0.604078  0.0075
0.254325  0.604431  0.0067101
0.25439  0.604647  0.00586824
0.254412  0.60472  0.005
0.25439  0.604647  0.00413176
0.254325  0.604431  0.0032899
0.254219  0.604078  0.0025
0.254076  0.6036  0.00178606
0.253899  0.603009  0.00116978
0.253694  0.602325  0.000669873
0.253467  0.601569  0.000301537
0.253225  0.600762  7.59612e-005
1  0.37586  0.005
1  0.37586  0
0.999751  0.375028  7.59612e-005
0.999509  0.374222  0.000301537
0.999282  0.373465  0.000669873
0.999077  0.372781  0.00116978
0.9989  0.372191  0.00178606
0.998756  0.371712  0.0025
0.99865  0.371359  0.0032899
0.998585  0.371143  0.00413176
0.998563  0.37107  0.005
0.998585  0.371143  0.00586824
0.99865  0.371359  0.0067101
0.998756  0.371712  0.0075
0.9989  0.372191  0.00821394
0.999077  0.372781  0.00883022
0.999282  0.373465  0.00933013
0.999509  0.374222  0.00969846
0.999751  0.375028  0.00992404
1  0.37586  0.01
1.00025  0.376691  0.00992404
1.00049  0.377498  0.00969846
1.00072  0.378254  0.00933013
1.00092  0.378938  0.00883022
1.0011  0.379528  0.00821394
1.00124  0.380007  0.0075
1.00135  0.38036  0.0067101
1.00141  0.380576  0.00586824
1.00144  0.380649  0.005
1.00141  0.380576  0.00413176
1.00135  0.38036  0.0032899
1.00124  0.380007  0.0025
1.0011  0.379528  0.00178606
1.00092  0.378938  0.00116978
1.00072  0.378254  0.000669873
1.00049  0.377498  0.000301537
1.00025  0.376691  7.59612e-005
0.370119  0.249115  0.005
0.370119  0.249115  0
0.370683  0.248455  7.59612e-005
0.371231  0.247816  0.000301537
0.371744  0.247215  0.000669873
0.372208  0.246673  0.00116978
0.372608  0.246204  0.00178606
0.372933  0.245824  0.0025
0.373172  0.245544  0.0032899
0.373319  0.245373  0.00413176
0.373368  0.245315  0.005
0.373319  0.245373  0.00586824
0.373172  0.245544  0.0067101
0.372933  0.245824  0.0075
0.372608  0.246204  0.00821394
0.372208  0.246673  0.00883022
0.371744  0.247215  0.00933013
0.371231  0.247816  0.00969846
0.370683  0.248455  0.00992404
0.370119  0.249115  0.01
0.369555  0.249775  0.00992404
0.369008  0.250415  0.00969846
0.368495  0.251016  0.00933013
0.368031  0.251558  0.00883022
0.36763  0.252027  0.00821394
0.367305  0.252407  0.0075
0.367066  0.252687  0.0067101
0.366919  0.252858  0.00586824
0.36687  0.252916  0.005
0.366919  0.252858  0.00413176
0.367066  0.252687  0.0032899
0.367305  0.252407  0.0025
0.36763  0.252027  0.00178606
0.368031  0.251558  0.00116978
0.368495  0.251016  0.000669873
0.369008  0.250415  0.000301537
0.369555  0.249775  7.59612e-005
0.978173  0.768991  0.005
0.978173  0.768991  0
0.978737  0.768331  7.59612e-005
0.979285  0.767691  0.000301537
0.979798  0.76709  0.000669873
0.980262  0.766548  0.00116978
0.980662  0.766079  0.00178606
0.980987  0.765699  0.0025
0.981227  0.765419  0.0032899
0.981373  0.765248  0.00413176
0.981422  0.76519  0.005
0.981373  0.765248  0.00586824
0.981227  0.765419  0.0067101
0.980987  0.765699  0.0075
0.980662  0.766079  0.00821394
0.980262  0.766548  0.00883022
0.979798  0.76709  0.00933013
0.979285  0.767691  0.00969846
0.978737  0.768331  0.00992404
0.978173  0.768991  0.01
0.977609  0.769651  0.00992404
0.977062  0.77029  0.00969846
0.976549  0.770891  0.00933013
0.976085  0.771433  0.00883022
0.975684  0.771902  0.00821394
0.975359  0.772282  0.0075
0.97512  0.772562  0.0067101
0.974973  0.772733  0.00586824
0.974924  0.772791  0.005
0.974973  0.772733  0.00413176
0.97512  0.772562  0.0032899
0.975359  0.772282  0.0025
0.975684  0.771902  0.00178606
0.976085  0.771433  0.00116978
0.976549  0.770891  0.000669873
0.977062  0.77029  0.000301537
0.977609  0.769651  7.59612e-005
0.146144  0.982051  0.005
0.146144  0.982051  0
0.145846  0.981236  7.59612e-005
0.145557  0.980445  0.000301537
0.145286  0.979703  0.000669873
0.145041  0.979033  0.00116978
0.144829  0.978454  0.00178606
0.144658  0.977984  0.0025
0.144531  0.977638  0.0032899
0.144454  0.977426  0.00413176
0.144428  0.977355  0.005
0.144454  0.977426  0.00586824
0.144531  0.977638  0.0067101
0.144658  0.977984  0.0075
0.144829  0.978454  0.00821394
0.145041  0.979033  0.00883022
0.145286  0.979703  0.00933013
0.145557  0.980445  0.00969846
0.145846  0.981236  0.00992404
0.146144  0.982051  0.01
0.146442  0.982867  0.00992404
0.146731  0.983657  0.00969846
0.147002  0.984399  0.00933013
0.147247  0.98507  0.00883022
0.147459  0.985649  0.00821394
0.147631  0.986118  0.0075
0.147757  0.986464  0.0067101
0.147835  0.986676  0.00586824
0.147861  0.986747  0.005
0.147835  0.986676  0.00413176
0.147757  0.986464  0.0032899
0.147631  0.986118  0.0025
0.147459  0.985649  0.00178606
0.147247  0.98507  0.00116978
0.147002  0.984399  0.000669873
0.146731  0.983657  0.000301537
0.146442  0.982867  7.59612e-005
0.897526  0.707414  0.005
0.897526  0.707414  0
0.897228  0.706599  7.59612e-005
0.896939  0.705808  0.000301537
0.896668  0.705066  0.000669873
0.896422  0.704396  0.00116978
0.896211  0.703817  0.00178606
0.896039  0.703347  0.0025
0.895913  0.703001  0.0032899
0.895835  0.702789  0.00413176
0.895809  0.702718  0.005
0.895835  0.702789  0.00586824
0.895913  0.703001  0.0067101
0.896039  0.703347  0.0075
0.896211  0.703817  0.00821394
0.896422  0.704396  0.00883022
0.896668  0.705066  0.00933013
0.896939  0.705808  0.00969846
0.897228  0.706599  0.00992404
0.897526  0.707414  0.01
0.897824  0.70823  0.00992404
0.898113  0.70902  0.00969846
0.898384  0.709762  0.00933013
0.898629  0.710433  0.00883022
0.898841  0.711012  0.00821394
0.899012  0.711481  0.0075
0.899139  0.711827  0.0067101
0.899216  0.712039  0.00586824
0.899242  0.71211  0.005
0.899216  0.712039  0.00413176
0.899139  0.711827  0.0032899
0.899012  0.711481  0.0025
0.898841  0.711012  0.00178606
0.898629  0.710433  0.00116978
0.898384  0.709762  0.000669873
0.898113  0.70902  0.000301537
0.897824  0.70823  7.59612e-005
0.143566  0.337569  0.005
0.143566  0.337569  0
0.143943  0.336787  7.59612e-005
0.144308  0.336028  0.000301537
0.144651  0.335317  0.000669873
0.144961  0.334673  0.00116978
0.145228  0.334118  0.00178606
0.145445  0.333668  0.0025
0.145605  0.333336  0.0032899
0.145703  0.333133  0.00413176
0.145736  0.333064  0.005
0.145703  0.333133  0.00586824
0.145605  0.333336  0.0067101
0.145445  0.333668  0.0075
0.145228  0.334118  0.00821394
0.144961  0.334673  0.00883022
0.144651  0.335317  0.00933013
0.144308  0.336028  0.00969846
0.143943  0.336787  0.00992404
0.143566  0.337569  0.01
0.14319  0.338351  0.00992404
0.142824  0.33911  0.00969846
0.142482  0.339821  0.00933013
0.142172  0.340465  0.00883022
0.141904  0.34102  0.00821394
0.141687  0.34147  0.0075
0.141528  0.341802  0.0067101
0.14143  0.342005  0.00586824
0.141397  0.342074  0.005
0.14143  0.342005  0.00413176
0.141528  0.341802  0.0032899
0.141687  0.34147  0.0025
0.141904  0.34102  0.00178606
0.142172  0.340465  0.00116978
0.142482  0.339821  0.000669873
0.142824  0.33911  0.000301537
0.14319  0.338351  7.59612e-005
0.864339  0.684681  0.005
0.864339  0.684681  0
0.864715  0.683899  7.59612e-005
0.865081  0.683141  0.000301537
0.865423  0.682429  0.000669873
0.865733  0.681786  0.00116978
0.866001  0.681231  0.00178606
0.866217  0.68078  0.0025
0.866377  0.680448  0.0032899
0.866475  0.680245  0.00413176
0.866508  0.680177  0.005
0.866475  0.680245  0.00586824
0.866377  0.680448  0.0067101
0.866217  0.68078  0.0075
0.866001  0.681231  0.00821394
0.865733  0.681786  0.00883022
0.865423  0.682429  0.00933013
0.865081  0.683141  0.00969846
0.864715  0.683899  0.00992404
0.864339  0.684681  0.01
0.863962  0.685464  0.00992404
0.863597  0.686222  0.00969846
0.863254  0.686934  0.00933013
0.862944  0.687577  0.00883022
0.862677  0.688132  0.00821394
0.86246  0.688583  0.0075
0.8623  0.688915  0.0067101
0.862202  0.689118  0.00586824
0.862169  0.689186  0.005
0.862202  0.689118  0.00413176
0.8623  0.688915  0.0032899
0.86246  0.688583  0.0025
0.862677  0.688132  0.00178606
0.862944  0.687577  0.00116978
0.863254  0.686934  0.000669873
0.863597  0.686222  0.000301537
0.863962  0.685464  7.59612e-005
0  0.820497  0.005
-4.0428e-019  0.820497  0
-0.000652097  0.819923  7.59612e-005
-0.00128438  0.819367  0.000301537
-0.00187764  0.818846  0.000669873
-0.00241384  0.818375  0.00116978
-0.00287671  0.817968  0.00178606
-0.00325216  0.817638  0.0025
-0.0035288  0.817394  0.0032899
-0.00369822  0.817246  0.00413176
-0.00375527  0.817195  0.005
-0.00369822  0.817246  0.00586824
-0.0035288  0.817394  0.0067101
-0.00325216  0.817638  0.0075
-0.00287671  0.817968  0.00821394
-0.00241384  0.818375  0.00883022
-0.00187764  0.818846  0.00933013
-0.00128438  0.819367  0.00969846
-0.000652097  0.819923  0.00992404
-4.59889e-019  0.820497  0.01
0.000652097  0.82107  0.00992404
0.00128438  0.821626  0.00969846
0.00187764  0.822147  0.00933013
0.00241384  0.822619  0.00883022
0.00287671  0.823025  0.00821394
0.00325216  0.823355  0.0075
0.0035288  0.823599  0.0067101
0.00369822  0.823748  0.00586824
0.00375527  0.823798  0.005
0.00369822  0.823748  0.00413176
0.0035288  0.823599  0.0032899
0.00325216  0.823355  0.0025
0.00287671  0.823025  0.00178606
0.00241384  0.822619  0.00116978
0.00187764  0.822147  0.000669873
0.00128438  0.821626  0.000301537
0.000652097  0.82107  7.59612e-005
0.271229  0.511961  0.005
0.271229  0.511961  0
0.270576  0.511388  7.59612e-005
0.269944  0.510832  0.000301537
0.269351  0.51031  0.000669873
0.268815  0.509839  0.00116978
0.268352  0.509432  0.00178606
0.267976  0.509102  0.0025
0.2677  0.508859  0.0032899
0.26753  0.50871  0.00413176
0.267473  0.50866  0.005
0.26753  0.50871  0.00586824
0.2677  0.508859  0.0067101
0.267976  0.509102  0.0075
0.268352  0.509432  0.00821394
0.268815  0.509839  0.00883022
0.269351  0.51031  0.00933013
0.269944  0.510832  0.00969846
0.270576  0.511388  0.00992404
0.271229  0.511961  0.01
0.271881  0.512534  0.00992404
0.272513  0.51309  0.00969846
0.273106  0.513611  0.00933013
0.273642  0.514083  0.00883022
0.274105  0.51449  0.00821394
0.274481  0.51482  0.0075
0.274757  0.515063  0.0067101
0.274927  0.515212  0.00586824
0.274984  0.515262  0.005
0.274927  0.515212  0.00413176
0.274757  0.515063  0.0032899
0.274481  0.51482  0.0025
0.274105  0.51449  0.00178606
0.273642  0.514083  0.00116978
0.273106  0.513611  0.000669873
0.272513  0.51309  0.000301537
0.271881  0.512534  7.59612e-005
0.569085  0.669088  0.005
0.569085  0.669088  0
0.568896  0.668241  7.59612e-005
0.568712  0.667419  0.000301537
0.568539  0.666648  0.000669873
0.568384  0.665952  0.00116978
0.568249  0.66535  0.00178606
0.56814  0.664862  0.0025
0.56806  0.664503  0.0032899
0.56801  0.664283  0.00413176
0.567994  0.664209  0.005
0.56801  0.664283  0.00586824
0.56806  0.664503  0.0067101
0.56814  0.664862  0.0075
0.568249  0.66535  0.00821394
0.568384  0.665952  0.00883022
0.568539  0.666648  0.00933013
0.568712  0.667419  0.00969846
0.568896  0.668241  0.00992404
0.569085  0.669088  0.01
0.569275  0.669935  0.00992404
0.569459  0.670757  0.00969846
0.569631  0.671528  0.00933013
0.569787  0.672225  0.00883022
0.569921  0.672826  0.00821394
0.57003  0.673314  0.0075
0.570111  0.673673  0.0067101
0.57016  0.673893  0.00586824
0.570177  0.673968  0.005
0.57016  0.673893  0.00413176
0.570111  0.673673  0.0032899
0.57003  0.673314  0.0025
0.569921  0.672826  0.00178606
0.569787  0.672225  0.00116978
0.569631  0.671528  0.000669873
0.569459  0.670757  0.000301537
0.569275  0.669935  7.59612e-005
1  0.572698  0.005
1  0.572698  0
0.99981  0.571851  7.59612e-005
0.999627  0.57103  0.000301537
0.999454  0.570259  0.000669873
0.999298  0.569562  0.00116978
0.999164  0.568961  0.00178606
0.999055  0.568473  0.0025
0.998974  0.568113  0.0032899
0.998925  0.567893  0.00413176
0.998909  0.567819  0.005
0.998925  0.567893  0.00586824
0.998974  0.568113  0.0067101
0.999055  0.568473  0.0075
0.999164  0.568961  0.00821394
0.999298  0.569562  0.00883022
0.999454  0.570259  0.00933013
0.999627  0.57103  0.00969846
0.99981  0.571851  0.00992404
1  0.572698  0.01
1.00019  0.573546  0.00992404
1.00037  0.574367  0.00969846
1.00055  0.575138  0.00933013
1.0007  0.575835  0.00883022
1.00084  0.576436  0.00821394
1.00095  0.576924  0.0075
1.00103  0.577284  0.0067101
1.00107  0.577504  0.00586824
1.00109  0.577578  0.005
1.00107  0.577504  0.00413176
1.00103  0.577284  0.0032899
1.00095  0.576924  0.0025
1.00084  0.576436  0.00178606
1.0007  0.575835  0.00116978
1.00055  0.575138  0.000669873
1.00037  0.574367  0.000301537
1.00019  0.573546  7.59612e-005
0.880378  0.864222  0.005
0.880378  0.864222  0
0.881016  0.863633  7.59612e-005
0.881635  0.863062  0.000301537
0.882216  0.862526  0.000669873
0.88274  0.862042  0.00116978
0.883193  0.861624  0.00178606
0.883561  0.861285  0.0025
0.883831  0.861035  0.0032899
0.883997  0.860882  0.00413176
0.884053  0.860831  0.005
0.883997  0.860882  0.00586824
0.883831  0.861035  0.0067101
0.883561  0.861285  0.0075
0.883193  0.861624  0.00821394
0.88274  0.862042  0.00883022
0.882216  0.862526  0.00933013
0.881635  0.863062  0.00969846
0.881016  0.863633  0.00992404
0.880378  0.864222  0.01
0.87974  0.864811  0.00992404
0.879122  0.865382  0.00969846
0.878541  0.865917  0.00933013
0.878016  0.866401  0.00883022
0.877564  0.866819  0.00821394
0.877196  0.867158  0.0075
0.876926  0.867408  0.0067101
0.87676  0.867561  0.00586824
0.876704  0.867613  0.005
0.87676  0.867561  0.00413176
0.876926  0.867408  0.0032899
0.877196  0.867158  0.0025
0.877564  0.866819  0.00178606
0.878016  0.866401  0.00116978
0.878541  0.865917  0.000669873
0.879122  0.865382  0.000301537
0.87974  0.864811  7.59612e-005
1  0.993849  0.005
1  0.993849  0
1.00064  0.993261  7.59612e-005
1.00126  0.99269  0.000301537