TITLE = CNT_Wires
VARIABLES = X, Y, Z
ZONE N=8, E=1, F=FEPOINT, ET=BRICK
-0.8  -0.8  0
-0.8  -0.8  2.6
-0.8  1.8  0
-0.8  1.8  2.6
1.8  -0.8  0
1.8  -0.8  2.6
1.8  1.8  0
1.8  1.8  2.6
1 2 4 3 5 6 8 7


ZONE N=4, E=1, F=FEPOINT, ET=QUADRILATERAL
-0.8  -0.8  0.005
-0.8  1.8  0.005
1.8  -0.8  0.005
1.8  1.8  0.005
1 2 4 3


ZONE T="Line"
i=1,j=2, f=point
0.126853  0.837135  0.005
0.76873  1.31462  0.005


ZONE T="Line"
i=1,j=2, f=point
-0.232513  -0.514593  0.005
0.182801  0.169157  0.005


ZONE T="Line"
i=1,j=2, f=point
1.62384  1.64189  0.005
1.8  1.74742  0.005


ZONE T="Line"
i=1,j=2, f=point
1.73805  -0.577324  0.005
1.8  -0.625018  0.005


ZONE T="Line"
i=1,j=2, f=point
1.78782  1.58855  0.005
1.8  1.58768  0.005


ZONE T="Line"
i=1,j=2, f=point
1.21526  1.57151  0.005
1.8  1.63838  0.005


ZONE T="Line"
i=1,j=2, f=point
0.0122573  0.929865  0.005
0.353273  1.65354  0.005


ZONE T="Line"
i=1,j=2, f=point
-0.636817  0.889172  0.005
-0.0552301  0.339847  0.005


ZONE T="Line"
i=1,j=2, f=point
0.96577  0.13669  0.005
1.02077  0.934797  0.005


ZONE T="Line"
i=1,j=2, f=point
0.875159  1.37126  0.005
1.20148  0.640836  0.005


ZONE T="Line"
i=1,j=2, f=point
1.29579  1.45986  0.005
1.66359  1.8  0.005


ZONE T="Line"
i=1,j=2, f=point
0.971218  0.534845  0.005
1.70304  0.858013  0.005


ZONE T="Line"
i=1,j=2, f=point
1.33037  -0.140845  0.005
1.8  0.24174  0.005


ZONE T="Line"
i=1,j=2, f=point
0.647618  -0.385979  0.005
0.882261  -0.8  0.005


ZONE T="Line"
i=1,j=2, f=point
0.431781  -0.759868  0.005
0.893965  -0.106886  0.005


ZONE T="Line"
i=1,j=2, f=point
1.25798  1.06112  0.005
1.8  1.44683  0.005


ZONE T="Line"
i=1,j=2, f=point
1.2759  0.851024  0.005
1.8  1.16717  0.005


ZONE T="Line"
i=1,j=2, f=point
1.38282  -0.680999  0.005
1.70676  -0.8  0.005


ZONE T="Line"
i=1,j=2, f=point
1.6146  0.707049  0.005
1.8  0.831137  0.005


ZONE T="Line"
i=1,j=2, f=point
-0.753599  0.0051302  0.005
-0.168252  0.550446  0.005


ZONE T="Line"
i=1,j=2, f=point
-0.234131  -0.483927  0.005
0.0539277  -0.8  0.005


ZONE T="Line"
i=1,j=2, f=point
1.05101  1.52033  0.005
1.23673  0.74219  0.005


ZONE T="Line"
i=1,j=2, f=point
0.420585  -0.714102  0.005
0.534225  -0.8  0.005


ZONE T="Line"
i=1,j=2, f=point
0.69928  -0.230969  0.005
1.49827  -0.271176  0.005


ZONE T="Line"
i=1,j=2, f=point
1.14703  1.43992  0.005
1.25925  1.8  0.005


ZONE T="Line"
i=1,j=2, f=point
0.113213  1.59455  0.005
0.418918  0.855265  0.005


ZONE T="Line"
i=1,j=2, f=point
-0.0243781  0.577271  0.005
0.697134  0.2317  0.005


ZONE T="Line"
i=1,j=2, f=point
0.0678645  0.871734  0.005
0.143943  1.66811  0.005


ZONE T="Line"
i=1,j=2, f=point
-0.268849  -0.56875  0.005
-0.0923894  -0.8  0.005


ZONE T="Line"
i=1,j=2, f=point
0.816761  1.73442  0.005
0.828649  1.8  0.005


ZONE T="Line"
i=1,j=2, f=point
1.28035  0.187009  0.005
1.8  0.139099  0.005


ZONE T="Line"
i=1,j=2, f=point
0.652822  1.62113  0.005
1.24601  1.8  0.005


ZONE T="Line"
i=1,j=2, f=point
-0.538021  0.139838  0.005
0.187901  -0.196372  0.005


ZONE T="Line"
i=1,j=2, f=point
1.13018  0.708421  0.005
1.8  0.875145  0.005


ZONE T="Line"
i=1,j=2, f=point
1.64169  1.4325  0.005
1.8  1.36728  0.005


ZONE T="Line"
i=1,j=2, f=point
1.63883  0.332911  0.005
1.74533  1.12579  0.005


ZONE T="Line"
i=1,j=2, f=point
0.440417  -0.183081  0.005
1.00705  -0.747817  0.005


ZONE T="Line"
i=1,j=2, f=point
0.527581  1.58159  0.005
0.933833  1.8  0.005


ZONE T="Line"
i=1,j=2, f=point
-0.175124  -0.373858  0.005
0.00670963  -0.8  0.005


ZONE T="Line"
i=1,j=2, f=point
0.183869  -0.763899  0.005
0.201531  -0.8  0.005


ZONE T="Line"
i=1,j=2, f=point
1.33808  1.0633  0.005
1.8  1.054  0.005


ZONE T="Line"
i=1,j=2, f=point
0.627363  1.64069  0.005
0.783449  1.8  0.005


ZONE T="Line"
i=1,j=2, f=point
-0.399346  0.204682  0.005
0.309509  -0.166161  0.005


ZONE T="Line"
i=1,j=2, f=point
-0.258256  0.753143  0.005
0.301582  1.32462  0.005


ZONE T="Line"
i=1,j=2, f=point
0.286811  -0.411003  0.005
1.06658  -0.58978  0.005


ZONE T="Line"
i=1,j=2, f=point
-0.491329  1.48354  0.005
-0.105349  0.782813  0.005


ZONE T="Line"
i=1,j=2, f=point
1.22197  -0.787187  0.005
1.24838  -0.8  0.005


ZONE T="Line"
i=1,j=2, f=point
1.68867  0.979712  0.005
1.71839  1.77916  0.005


ZONE T="Line"
i=1,j=2, f=point
1.13691  -0.611311  0.005
1.8  -0.773181  0.005


ZONE T="Line"
i=1,j=2, f=point
1.03769  -0.385825  0.005
1.71261  0.043688  0.005


ZONE T="Line"
i=1,j=2, f=point
0.334373  -0.675385  0.005
0.989268  -0.215915  0.005


ZONE T="Line"
i=1,j=2, f=point
1.49028  -0.741411  0.005
1.49624  -0.8  0.005


ZONE T="Line"
i=1,j=2, f=point
-0.0507006  1.33781  0.005
0.371227  1.8  0.005


ZONE T="Line"
i=1,j=2, f=point
0.112843  0.713744  0.005
0.822174  0.343812  0.005


ZONE T="Line"
i=1,j=2, f=point
0.252804  0.452791  0.005
0.986352  0.133561  0.005


ZONE T="Line"
i=1,j=2, f=point
1.57613  0.737972  0.005
1.8  0.835398  0.005


ZONE T="Line"
i=1,j=2, f=point
-0.736912  -0.531186  0.005
-0.308774  0.144608  0.005


ZONE T="Line"
i=1,j=2, f=point
-0.712202  -0.303234  0.005
-0.28472  0.372976  0.005


ZONE T="Line"
i=1,j=2, f=point
-0.612379  -0.245035  0.005
0.104737  -0.599639  0.005


ZONE T="Line"
i=1,j=2, f=point
1.69745  1.40633  0.005
1.8  1.20228  0.005


ZONE T="Line"
i=1,j=2, f=point
0.46685  1.09477  0.005
0.491869  0.295157  0.005


ZONE T="Line"
i=1,j=2, f=point
1.32896  0.829448  0.005
1.8  0.754133  0.005


ZONE T="Line"
i=1,j=2, f=point
-0.328995  1.36962  0.005
0.400483  1.69805  0.005


ZONE T="Line"
i=1,j=2, f=point
-0.163964  1.47521  0.005
-0.0269302  1.8  0.005


ZONE T="Line"
i=1,j=2, f=point
0.599389  -0.160855  0.005
0.644821  0.637854  0.005


ZONE T="Line"
i=1,j=2, f=point
-0.0310416  0.855313  0.005
0.744498  0.659002  0.005


ZONE T="Line"
i=1,j=2, f=point
1.47092  0.854065  0.005
1.8  1.05061  0.005


ZONE T="Line"
i=1,j=2, f=point
-0.368687  -0.344808  0.005
-0.0573971  -0.8  0.005


ZONE T="Line"
i=1,j=2, f=point
0.30236  0.435225  0.005
1.10077  0.485677  0.005


ZONE T="Line"
i=1,j=2, f=point
-0.637369  -0.0903753  0.005
-0.567992  -0.8  0.005


ZONE T="Line"
i=1,j=2, f=point
-0.555373  0.0988092  0.005
0.0598773  0.610147  0.005


ZONE T="Line"
i=1,j=2, f=point
-0.77947  0.512095  0.005
-0.0850063  0.114955  0.005


ZONE T="Line"
i=1,j=2, f=point
1.71812  0.788844  0.005
1.8  0.930557  0.005


ZONE T="Line"
i=1,j=2, f=point
0.226463  -0.172441  0.005
0.965397  0.134116  0.005


ZONE T="Line"
i=1,j=2, f=point
-0.285989  0.0891234  0.005
0.498543  0.245682  0.005


ZONE T="Line"
i=1,j=2, f=point
1.55633  -0.0733592  0.005
1.8  0.0890432  0.005


ZONE T="Line"
i=1,j=2, f=point
1.61178  0.657879  0.005
1.8  0.941755  0.005


ZONE T="Line"
i=1,j=2, f=point
-0.413185  -0.419257  0.005
0.373748  -0.563262  0.005


ZONE T="Line"
i=1,j=2, f=point
-0.296379  1.42881  0.005
0.0476565  1.8  0.005


ZONE T="Line"
i=1,j=2, f=point
0.0699394  0.790289  0.005
0.837102  0.563437  0.005


ZONE T="Line"
i=1,j=2, f=point
-0.147094  0.319146  0.005
0.016726  -0.463901  0.005


ZONE T="Line"
i=1,j=2, f=point
0.0472827  0.635556  0.005
0.824578  0.824794  0.005


ZONE T="Line"
i=1,j=2, f=point
0.85945  -0.255594  0.005
1.63442  -0.0570574  0.005


ZONE T="Line"
i=1,j=2, f=point
-0.663897  1.03186  0.005
0.134159  1.08759  0.005


ZONE T="Line"
i=1,j=2, f=point
0.0830983  -0.0569495  0.005
0.86668  0.104294  0.005


ZONE T="Line"
i=1,j=2, f=point
-0.110624  0.940637  0.005
-0.0852678  0.141039  0.005


ZONE T="Line"
i=1,j=2, f=point
0.361453  -0.575667  0.005
0.37339  0.224244  0.005


ZONE T="Line"
i=1,j=2, f=point
0.698996  0.147706  0.005
1.37985  -0.272331  0.005


ZONE T="Line"
i=1,j=2, f=point
1.71651  0.541361  0.005
1.8  0.66213  0.005


ZONE T="Line"
i=1,j=2, f=point
0.682647  -0.614928  0.005
1.3034  -0.110285  0.005


ZONE T="Line"
i=1,j=2, f=point
0.143816  0.237698  0.005
0.370433  -0.529534  0.005


ZONE T="Line"
i=1,j=2, f=point
-0.577383  1.39065  0.005
0.0834641  0.939783  0.005


ZONE T="Line"
i=1,j=2, f=point
-0.756055  -0.586727  0.005
-0.0428189  -0.224382  0.005


ZONE T="Line"
i=1,j=2, f=point
1.28153  0.979898  0.005
1.8  1.10286  0.005


ZONE T="Line"
i=1,j=2, f=point
-0.703312  0.606877  0.005
0.0347732  0.298284  0.005


ZONE T="Line"
i=1,j=2, f=point
0.869121  0.56198  0.005
1.46413  1.09674  0.005


ZONE T="Line"
i=1,j=2, f=point
0.148483  0.203799  0.005
0.309402  0.987447  0.005


ZONE T="Line"
i=1,j=2, f=point
0.0780262  -0.273685  0.005
0.139497  0.52395  0.005


ZONE T="Line"
i=1,j=2, f=point
0.412142  0.695142  0.005
0.710846  1.43728  0.005


ZONE T="Line"
i=1,j=2, f=point
1.09383  1.10375  0.005
1.8  1.1821  0.005


ZONE T="Line"
i=1,j=2, f=point
0.759686  -0.618371  0.005
0.798426  -0.8  0.005


ZONE T="Line"
i=1,j=2, f=point
0.308341  1.65629  0.005
0.342694  1.8  0.005


ZONE T="Line"
i=1,j=2, f=point
0.055566  1.30144  0.005
0.526975  0.655085  0.005


ZONE T="Line"
i=1,j=2, f=point
1.68335  1.39833  0.005
1.73609  1.8  0.005


ZONE T="Line"
i=1,j=2, f=point
0.572045  0.87866  0.005
1.35007  1.06489  0.005


ZONE T="Line"
i=1,j=2, f=point
-0.589142  1.43042  0.005
-0.144983  0.76505  0.005


ZONE T="Line"
i=1,j=2, f=point
-0.0808625  1.10829  0.005
0.631065  0.743379  0.005


ZONE T="Line"
i=1,j=2, f=point
1.10259  0.661745  0.005
1.8  0.299284  0.005


ZONE T="Line"
i=1,j=2, f=point
0.471908  1.36763  0.005
1.17482  1.74962  0.005


ZONE T="Line"
i=1,j=2, f=point
1.62497  -0.562078  0.005
1.8  -0.185808  0.005


ZONE T="Line"
i=1,j=2, f=point
0.313571  0.343215  0.005
1.06027  0.630342  0.005


ZONE T="Line"
i=1,j=2, f=point
1.1587  0.652646  0.005
1.7418  0.104922  0.005


ZONE T="Line"
i=1,j=2, f=point
0.170885  -0.797994  0.005
0.178234  -0.8  0.005


ZONE T="Line"
i=1,j=2, f=point
0.869633  -0.666956  0.005
0.872087  -0.8  0.005


ZONE T="Line"
i=1,j=2, f=point
-0.186406  0.74737  0.005
0.013732  1.52193  0.005


ZONE T="Line"
i=1,j=2, f=point
1.64426  0.84301  0.005
1.8  0.872625  0.005


ZONE T="Line"
i=1,j=2, f=point
0.412873  1.55734  0.005
0.593698  1.8  0.005


ZONE T="Line"
i=1,j=2, f=point
1.6358  1.631  0.005
1.8  1.69433  0.005


ZONE T="Line"
i=1,j=2, f=point
0.0197808  1.39742  0.005
0.372574  0.67941  0.005


ZONE T="Line"
i=1,j=2, f=point
-0.451664  0.674984  0.005
-0.339509  1.46708  0.005


ZONE T="Line"
i=1,j=2, f=point
1.35228  1.31018  0.005
1.8  1.43182  0.005


ZONE T="Line"
i=1,j=2, f=point
0.81144  0.335218  0.005
1.22466  1.02024  0.005


ZONE T="Line"
i=1,j=2, f=point
1.40055  0.239484  0.005
1.41123  1.03941  0.005


ZONE T="Line"
i=1,j=2, f=point
-0.28714  -0.269644  0.005
-0.152733  0.518984  0.005


ZONE T="Line"
i=1,j=2, f=point
-0.0381004  1.14354  0.005
0.754198  1.25428  0.005


ZONE T="Line"
i=1,j=2, f=point
-0.455124  -0.743117  0.005
0.0483647  -0.121426  0.005


ZONE T="Line"
i=1,j=2, f=point
1.00315  -0.530371  0.005
1.16715  -0.8  0.005


ZONE T="Line"
i=1,j=2, f=point
1.51201  -0.324458  0.005
1.72608  0.446372  0.005


ZONE T="Line"
i=1,j=2, f=point
0.68366  1.69186  0.005
1.48353  1.70642  0.005


ZONE T="Line"
i=1,j=2, f=point
0.0197435  1.45723  0.005
0.819379  1.4814  0.005


ZONE T="Line"
i=1,j=2, f=point
0.0518894  -0.118091  0.005
0.0758998  -0.8  0.005


ZONE T="Line"
i=1,j=2, f=point
-0.0685436  -0.732951  0.005
0.142851  -0.8  0.005


ZONE T="Line"
i=1,j=2, f=point
0.155675  1.6069  0.005
0.241248  1.8  0.005


ZONE T="Line"
i=1,j=2, f=point
0.0028638  0.758828  0.005
0.279034  1.50965  0.005


ZONE T="Line"
i=1,j=2, f=point
-0.177842  0.190275  0.005
0.215844  -0.506152  0.005


ZONE T="Line"
i=1,j=2, f=point
0.834783  1.53557  0.005
0.930858  1.8  0.005


ZONE T="Line"
i=1,j=2, f=point
0.321036  0.765947  0.005
0.669396  0.045777  0.005


ZONE T="Line"
i=1,j=2, f=point
1.47813  0.221871  0.005
1.8  0.598419  0.005


ZONE T="Line"
i=1,j=2, f=point
-0.266753  1.62284  0.005
-0.0170196  0.862819  0.005


ZONE T="Line"
i=1,j=2, f=point
0.00202288  1.39352  0.005
0.629849  0.897706  0.005


ZONE T="Line"
i=1,j=2, f=point
-0.110962  1.41014  0.005
0.484212  0.875572  0.005


ZONE T="Line"
i=1,j=2, f=point
1.50152  1.46796  0.005
1.8  1.57978  0.005


ZONE T="Line"
i=1,j=2, f=point
-0.0409312  0.53799  0.005
0.394327  1.20922  0.005


ZONE T="Line"
i=1,j=2, f=point
0.349239  -0.264609  0.005
0.4513  0.528854  0.005


ZONE T="Line"
i=1,j=2, f=point
0.284273  1.15069  0.005
1.08427  1.15358  0.005


ZONE T="Line"
i=1,j=2, f=point
-0.247079  1.55839  0.005
-0.168032  1.8  0.005


ZONE T="Line"
i=1,j=2, f=point
0.734489  0.229957  0.005
1.52968  0.142382  0.005


ZONE T="Line"
i=1,j=2, f=point
0.385559  1.06403  0.005
0.700504  1.79943  0.005


ZONE T="Line"
i=1,j=2, f=point
-0.0314366  0.972262  0.005
0.0973575  1.76183  0.005


ZONE T="Line"
i=1,j=2, f=point
1.69884  -0.322995  0.005
1.8  -0.281116  0.005


ZONE T="Line"
i=1,j=2, f=point
1.37516  -0.261412  0.005
1.8  0.0629364  0.005


ZONE T="Line"
i=1,j=2, f=point
0.0897898  1.0387  0.005
0.123208  0.239394  0.005


ZONE T="Line"
i=1,j=2, f=point
0.0876063  0.641299  0.005
0.887264  0.617892  0.005


ZONE T="Line"
i=1,j=2, f=point
-0.0501551  0.537233  0.005
0.512362  -0.0316029  0.005


ZONE T="Line"
i=1,j=2, f=point
0.00736828  1.16887  0.005
0.00968997  1.8  0.005


ZONE T="Line"
i=1,j=2, f=point
-0.322436  0.667287  0.005
0.347046  1.10523  0.005


ZONE T="Line"
i=1,j=2, f=point
0.394451  0.671986  0.005
0.750627  -0.044351  0.005


ZONE T="Line"
i=1,j=2, f=point
0.625308  -0.534839  0.005
0.878549  -0.8  0.005


ZONE T="Line"
i=1,j=2, f=point
-0.458795  0.211212  0.005
0.062984  0.817634  0.005


ZONE T="Line"
i=1,j=2, f=point
-0.032144  0.481851  0.005
0.481143  -0.131775  0.005


ZONE T="Line"
i=1,j=2, f=point
0.668884  0.959978  0.005
1.35804  1.36625  0.005


ZONE T="Line"
i=1,j=2, f=point
1.35359  -0.127255  0.005
1.387  0.672047  0.005


ZONE T="Line"
i=1,j=2, f=point
1.4888  0.97056  0.005
1.8  0.805296  0.005


ZONE T="Line"
i=1,j=2, f=point
-0.708683  1.53797  0.005
-0.342214  1.8  0.005


ZONE T="Line"
i=1,j=2, f=point
0.255148  0.544153  0.005
1.04137  0.691976  0.005


